    2    2    1    1
  0.2001288E+02  0.3839590E-09  0.3839590E-09  0.3839590E-09  0.5000000E-15
  1.000000000000000E-004
  CAR 
 unknown system                          
    8   40    8
 
  0.5000000E+00  0.5000000E+00  0.5000000E+00  0.2500000E-01
   1       -3.759178
   2       -1.103626
   3        4.677993
   4        4.677993
   5        7.421467
   6        9.218021
   7        9.218021
   8       13.598600
 
  0.4444444E+00  0.4444444E+00  0.4444444E+00  0.2500000E-01
   1       -3.923409
   2       -0.863717
   3        4.699582
   4        4.699582
   5        7.446561
   6        9.242411
   7        9.242411
   8       13.636991
 
  0.3888889E+00  0.3888889E+00  0.3888889E+00  0.2500000E-01
   1       -4.294632
   2       -0.264170
   3        4.766196
   4        4.766196
   5        7.523529
   6        9.308667
   7        9.308667
   8       13.732315
 
  0.3333333E+00  0.3333333E+00  0.3333333E+00  0.2500000E-01
   1       -4.716577
   2        0.536232
   3        4.876578
   4        4.876578
   5        7.647327
   6        9.384652
   7        9.384652
   8       13.760426
 
  0.2777778E+00  0.2777778E+00  0.2777778E+00  0.2500000E-01
   1       -5.114787
   2        1.455171
   3        5.028389
   4        5.028389
   5        7.815168
   6        9.411295
   7        9.411295
   8       13.253688
 
  0.2222222E+00  0.2222222E+00  0.2222222E+00  0.2500000E-01
   1       -5.458453
   2        2.452331
   3        5.216622
   4        5.216622
   5        8.014783
   6        9.318153
   7        9.318153
   8       12.336344
 
  0.1666667E+00  0.1666667E+00  0.1666667E+00  0.2500000E-01
   1       -5.733595
   2        3.495620
   3        5.430370
   4        5.430370
   5        8.230775
   6        9.086991
   7        9.086991
   8       11.343604
 
  0.1111111E+00  0.1111111E+00  0.1111111E+00  0.2500000E-01
   1       -5.933444
   2        4.536217
   3        5.645844
   4        5.645844
   5        8.422770
   6        8.787939
   7        8.787939
   8       10.362780
 
  0.5555556E-01  0.5555556E-01  0.5555556E-01  0.2500000E-01
   1       -6.054572
   2        5.452060
   3        5.817717
   4        5.817717
   5        8.500845
   6        8.535274
   7        8.535294
   8        9.554278
 
  0.0000000E+00  0.0000000E+00  0.0000000E+00  0.2500000E-01
   1       -6.095194
   2        5.885129
   3        5.885145
   4        5.885145
   5        8.434873
   6        8.434889
   7        8.434895
   8        9.255354
 
  0.0000000E+00  0.0000000E+00  0.0000000E+00  0.2500000E-01
   1       -6.095194
   2        5.885129
   3        5.885145
   4        5.885145
   5        8.434873
   6        8.434889
   7        8.434895
   8        9.255354
 
  0.0000000E+00  0.5555556E-01  0.5555556E-01  0.2500000E-01
   1       -6.041027
   2        5.546108
   3        5.670638
   4        5.670649
   5        8.306120
   6        8.717538
   7        8.717549
   8        9.581781
 
  0.0000000E+00  0.1111111E+00  0.1111111E+00  0.2500000E-01
   1       -5.879120
   2        4.773965
   3        5.201628
   4        5.201638
   5        7.981532
   6        9.385245
   7        9.385260
   8       10.188325
 
  0.0000000E+00  0.1666667E+00  0.1666667E+00  0.2500000E-01
   1       -5.610553
   2        3.844616
   3        4.681999
   4        4.682008
   5        7.576280
   6       10.186629
   7       10.230179
   8       10.230194
 
  0.0000000E+00  0.2222222E+00  0.2222222E+00  0.2500000E-01
   1       -5.237180
   2        2.861599
   3        4.199146
   4        4.199155
   5        7.179723
   6        9.438333
   7       11.160506
   8       11.160525
 
  0.0000000E+00  0.2777778E+00  0.2777778E+00  0.2500000E-01
   1       -4.761793
   2        1.862495
   3        3.784375
   4        3.784385
   5        6.844411
   6        8.602179
   7       12.145463
   8       12.145478
 
  0.0000000E+00  0.3333333E+00  0.3333333E+00  0.2500000E-01
   1       -4.188301
   2        0.866239
   3        3.452662
   4        3.452671
   5        6.600736
   6        7.869641
   7       13.161784
   8       13.161806
 
  0.0000000E+00  0.3888889E+00  0.3888889E+00  0.2500000E-01
   1       -3.522719
   2       -0.110892
   3        3.211046
   4        3.211055
   5        6.467585
   6        7.285154
   7       14.210269
   8       14.210292
 
  0.0000000E+00  0.4444444E+00  0.4444444E+00  0.2500000E-01
   1       -2.771916
   2       -1.053737
   3        3.065211
   4        3.065220
   5        6.459052
   6        6.858042
   7       15.259984
   8       15.260092
 
  0.0000000E+00  0.5000000E+00  0.5000000E+00  0.2500000E-01
   1       -1.945078
   2       -1.945076
   3        3.016355
   4        3.016364
   5        6.585744
   6        6.585762
   7       16.002429
   8       16.002443
 
  0.0000000E+00  0.5000000E+00  0.5000000E+00  0.2500000E-01
   1       -1.945078
   2       -1.945076
   3        3.016355
   4        3.016364
   5        6.585744
   6        6.585762
   7       16.002429
   8       16.002443
 
  0.2777778E-01  0.5138889E+00  0.5138889E+00  0.2500000E-01
   1       -1.947841
   2       -1.937768
   3        2.970199
   4        3.021802
   5        6.592015
   6        6.654312
   7       15.927695
   8       15.961662
 
  0.5555556E-01  0.5277778E+00  0.5277778E+00  0.2500000E-01
   1       -1.956541
   2       -1.915844
   3        2.842685
   4        3.038098
   5        6.610808
   6        6.849361
   7       15.726938
   8       15.846421
 
  0.8333333E-01  0.5416667E+00  0.5416667E+00  0.2500000E-01
   1       -1.972452
   2       -1.879315
   3        2.658750
   4        3.065111
   5        6.642051
   6        7.146129
   7       15.443816
   8       15.669946
 
  0.1111111E+00  0.5555556E+00  0.5555556E+00  0.2500000E-01
   1       -1.997522
   2       -1.828195
   3        2.446222
   4        3.102893
   5        6.685646
   6        7.519137
   7       15.119586
   8       15.453155
 
  0.1388889E+00  0.5694444E+00  0.5694444E+00  0.2500000E-01
   1       -2.034192
   2       -1.762565
   3        2.227312
   4        3.150910
   5        6.739855
   6        7.949812
   7       14.768411
   8       15.207231
 
  0.1666667E+00  0.5833333E+00  0.5833333E+00  0.2500000E-01
   1       -2.085680
   2       -1.682343
   3        2.018787
   4        3.209559
   5        6.807560
   6        8.423291
   7       14.411541
   8       14.944843
 
  0.1944444E+00  0.5972222E+00  0.5972222E+00  0.2500000E-01
   1       -2.155195
   2       -1.587624
   3        1.832972
   4        3.278268
   5        6.886955
   6        8.929782
   7       14.055042
   8       14.672640
 
  0.2222222E+00  0.6111111E+00  0.6111111E+00  0.2500000E-01
   1       -2.245486
   2       -1.478449
   3        1.678521
   4        3.356716
   5        6.977685
   6        9.462217
   7       13.701155
   8       14.392720
 
  0.2500000E+00  0.6250000E+00  0.6250000E+00  0.2500000E-01
   1       -2.358037
   2       -1.354371
   3        1.561560
   4        3.444695
   5        7.079665
   6       10.016068
   7       13.354484
   8       13.929506
 
  0.3750000E+00  0.7500000E+00  0.3750000E+00  0.2500000E-01
   1       -2.358037
   2       -1.354371
   3        1.561560
   4        3.444695
   5        7.079665
   6       10.016068
   7       13.354524
   8       13.929440
 
  0.3333333E+00  0.6666667E+00  0.3333333E+00  0.2500000E-01
   1       -2.825649
   2       -0.897749
   3        1.450455
   4        3.759200
   5        7.443308
   6       11.700485
   7       12.359060
   8       12.977009
 
  0.2916667E+00  0.5833333E+00  0.2916667E+00  0.2500000E-01
   1       -3.422180
   2       -0.314089
   3        1.662722
   4        4.135474
   5        7.875415
   6       11.456320
   7       11.814328
   8       12.601939
 
  0.2500000E+00  0.5000000E+00  0.2500000E+00  0.2500000E-01
   1       -4.048471
   2        0.394165
   3        2.113035
   4        4.547039
   5        8.329264
   6       10.666335
   7       11.039442
   8       12.031381
 
  0.2083333E+00  0.4166667E+00  0.2083333E+00  0.2500000E-01
   1       -4.635773
   2        1.220883
   3        2.728650
   4        4.954971
   5        8.713563
   6        9.987919
   7       10.336192
   8       11.667720
 
  0.1666667E+00  0.3333333E+00  0.1666667E+00  0.2500000E-01
   1       -5.144550
   2        2.159299
   3        3.457693
   4        5.316457
   5        8.919966
   6        9.432869
   7        9.741359
   8       11.553985
 
  0.1250000E+00  0.2500000E+00  0.1250000E+00  0.2500000E-01
   1       -5.554166
   2        3.194924
   3        4.245207
   4        5.591298
   5        8.921673
   6        8.997975
   7        9.246794
   8       11.439119
 
  0.8333333E-01  0.1666667E+00  0.8333333E-01  0.2500000E-01
   1       -5.852962
   2        4.291419
   3        5.013502
   4        5.766349
   5        8.685176
   6        8.810536
   7        8.848901
   8       10.715029
 
  0.4166667E-01  0.8333333E-01  0.4166667E-01  0.2500000E-01
   1       -6.034355
   2        5.337851
   3        5.632178
   4        5.857725
   5        8.497502
   6        8.556148
   7        8.635463
   8        9.690628
 
  0.0000000E+00  0.0000000E+00  0.0000000E+00  0.2500000E-01
   1       -6.095194
   2        5.885129
   3        5.885145
   4        5.885145
   5        8.434873
   6        8.434889
   7        8.434895
   8        9.255354
